+ 0.1 0 2 ping 64 ------- 0 0.0 4.0 -1 0
- 0.1 0 2 ping 64 ------- 0 0.0 4.0 -1 0
+ 0.1 5 3 ping 64 ------- 1 5.0 1.0 -1 1
- 0.1 5 3 ping 64 ------- 1 5.0 1.0 -1 1
r 0.110512 0 2 ping 64 ------- 0 0.0 4.0 -1 0
+ 0.110512 2 3 ping 64 ------- 0 0.0 4.0 -1 0
- 0.110512 2 3 ping 64 ------- 0 0.0 4.0 -1 0
r 0.110512 5 3 ping 64 ------- 1 5.0 1.0 -1 1
+ 0.110512 3 2 ping 64 ------- 1 5.0 1.0 -1 1
- 0.110512 3 2 ping 64 ------- 1 5.0 1.0 -1 1
+ 0.2 0 2 ping 64 ------- 0 0.0 4.0 -1 2
- 0.2 0 2 ping 64 ------- 0 0.0 4.0 -1 2
+ 0.2 5 3 ping 64 ------- 1 5.0 1.0 -1 3
- 0.2 5 3 ping 64 ------- 1 5.0 1.0 -1 3
r 0.210512 0 2 ping 64 ------- 0 0.0 4.0 -1 2
+ 0.210512 2 3 ping 64 ------- 0 0.0 4.0 -1 2
r 0.210512 5 3 ping 64 ------- 1 5.0 1.0 -1 3
+ 0.210512 3 2 ping 64 ------- 1 5.0 1.0 -1 3
- 0.212912 2 3 ping 64 ------- 0 0.0 4.0 -1 2
- 0.212912 3 2 ping 64 ------- 1 5.0 1.0 -1 3
r 0.222912 2 3 ping 64 ------- 0 0.0 4.0 -1 0
+ 0.222912 3 4 ping 64 ------- 0 0.0 4.0 -1 0
- 0.222912 3 4 ping 64 ------- 0 0.0 4.0 -1 0
r 0.222912 3 2 ping 64 ------- 1 5.0 1.0 -1 1
+ 0.222912 2 1 ping 64 ------- 1 5.0 1.0 -1 1
- 0.222912 2 1 ping 64 ------- 1 5.0 1.0 -1 1
r 0.233424 3 4 ping 64 ------- 0 0.0 4.0 -1 0
+ 0.233424 4 3 ping 64 ------- 0 4.0 0.0 -1 4
- 0.233424 4 3 ping 64 ------- 0 4.0 0.0 -1 4
r 0.233424 2 1 ping 64 ------- 1 5.0 1.0 -1 1
+ 0.233424 1 2 ping 64 ------- 1 1.0 5.0 -1 5
- 0.233424 1 2 ping 64 ------- 1 1.0 5.0 -1 5
r 0.243936 4 3 ping 64 ------- 0 4.0 0.0 -1 4
+ 0.243936 3 2 ping 64 ------- 0 4.0 0.0 -1 4
r 0.243936 1 2 ping 64 ------- 1 1.0 5.0 -1 5
+ 0.243936 2 3 ping 64 ------- 1 1.0 5.0 -1 5
+ 0.3 0 2 ping 64 ------- 0 0.0 4.0 -1 6
- 0.3 0 2 ping 64 ------- 0 0.0 4.0 -1 6
+ 0.3 5 3 ping 64 ------- 1 5.0 1.0 -1 7
- 0.3 5 3 ping 64 ------- 1 5.0 1.0 -1 7
r 0.310512 0 2 ping 64 ------- 0 0.0 4.0 -1 6
+ 0.310512 2 3 ping 64 ------- 0 0.0 4.0 -1 6
d 0.310512 2 3 ping 64 ------- 0 0.0 4.0 -1 6
r 0.310512 5 3 ping 64 ------- 1 5.0 1.0 -1 7
+ 0.310512 3 2 ping 64 ------- 1 5.0 1.0 -1 7
- 0.315312 2 3 ping 64 ------- 1 1.0 5.0 -1 5
- 0.315312 3 2 ping 64 ------- 0 4.0 0.0 -1 4
r 0.325312 2 3 ping 64 ------- 0 0.0 4.0 -1 2
+ 0.325312 3 4 ping 64 ------- 0 0.0 4.0 -1 2
- 0.325312 3 4 ping 64 ------- 0 0.0 4.0 -1 2
r 0.325312 3 2 ping 64 ------- 1 5.0 1.0 -1 3
+ 0.325312 2 1 ping 64 ------- 1 5.0 1.0 -1 3
- 0.325312 2 1 ping 64 ------- 1 5.0 1.0 -1 3
r 0.335824 3 4 ping 64 ------- 0 0.0 4.0 -1 2
+ 0.335824 4 3 ping 64 ------- 0 4.0 0.0 -1 8
- 0.335824 4 3 ping 64 ------- 0 4.0 0.0 -1 8
r 0.335824 2 1 ping 64 ------- 1 5.0 1.0 -1 3
+ 0.335824 1 2 ping 64 ------- 1 1.0 5.0 -1 9
- 0.335824 1 2 ping 64 ------- 1 1.0 5.0 -1 9
r 0.346336 4 3 ping 64 ------- 0 4.0 0.0 -1 8
+ 0.346336 3 2 ping 64 ------- 0 4.0 0.0 -1 8
r 0.346336 1 2 ping 64 ------- 1 1.0 5.0 -1 9
+ 0.346336 2 3 ping 64 ------- 1 1.0 5.0 -1 9
+ 0.4 0 2 ping 64 ------- 0 0.0 4.0 -1 10
- 0.4 0 2 ping 64 ------- 0 0.0 4.0 -1 10
+ 0.4 5 3 ping 64 ------- 1 5.0 1.0 -1 11
- 0.4 5 3 ping 64 ------- 1 5.0 1.0 -1 11
r 0.410512 0 2 ping 64 ------- 0 0.0 4.0 -1 10
+ 0.410512 2 3 ping 64 ------- 0 0.0 4.0 -1 10
d 0.410512 2 3 ping 64 ------- 0 0.0 4.0 -1 10
r 0.410512 5 3 ping 64 ------- 1 5.0 1.0 -1 11
+ 0.410512 3 2 ping 64 ------- 1 5.0 1.0 -1 11
- 0.417712 2 3 ping 64 ------- 1 1.0 5.0 -1 9
- 0.417712 3 2 ping 64 ------- 1 5.0 1.0 -1 7
r 0.427712 2 3 ping 64 ------- 1 1.0 5.0 -1 5
+ 0.427712 3 5 ping 64 ------- 1 1.0 5.0 -1 5
- 0.427712 3 5 ping 64 ------- 1 1.0 5.0 -1 5
r 0.427712 3 2 ping 64 ------- 0 4.0 0.0 -1 4
+ 0.427712 2 0 ping 64 ------- 0 4.0 0.0 -1 4
- 0.427712 2 0 ping 64 ------- 0 4.0 0.0 -1 4
r 0.438224 3 5 ping 64 ------- 1 1.0 5.0 -1 5
r 0.438224 2 0 ping 64 ------- 0 4.0 0.0 -1 4
+ 0.5 0 2 ping 64 ------- 0 0.0 4.0 -1 12
- 0.5 0 2 ping 64 ------- 0 0.0 4.0 -1 12
+ 0.5 5 3 ping 64 ------- 1 5.0 1.0 -1 13
- 0.5 5 3 ping 64 ------- 1 5.0 1.0 -1 13
r 0.510512 0 2 ping 64 ------- 0 0.0 4.0 -1 12
+ 0.510512 2 3 ping 64 ------- 0 0.0 4.0 -1 12
r 0.510512 5 3 ping 64 ------- 1 5.0 1.0 -1 13
+ 0.510512 3 2 ping 64 ------- 1 5.0 1.0 -1 13
- 0.520112 2 3 ping 64 ------- 0 0.0 4.0 -1 12
- 0.520112 3 2 ping 64 ------- 0 4.0 0.0 -1 8
r 0.530112 2 3 ping 64 ------- 1 1.0 5.0 -1 9
+ 0.530112 3 5 ping 64 ------- 1 1.0 5.0 -1 9
- 0.530112 3 5 ping 64 ------- 1 1.0 5.0 -1 9
r 0.530112 3 2 ping 64 ------- 1 5.0 1.0 -1 7
+ 0.530112 2 1 ping 64 ------- 1 5.0 1.0 -1 7
- 0.530112 2 1 ping 64 ------- 1 5.0 1.0 -1 7
r 0.540624 3 5 ping 64 ------- 1 1.0 5.0 -1 9
r 0.540624 2 1 ping 64 ------- 1 5.0 1.0 -1 7
+ 0.540624 1 2 ping 64 ------- 1 1.0 5.0 -1 14
- 0.540624 1 2 ping 64 ------- 1 1.0 5.0 -1 14
r 0.551136 1 2 ping 64 ------- 1 1.0 5.0 -1 14
+ 0.551136 2 3 ping 64 ------- 1 1.0 5.0 -1 14
+ 0.6 0 2 ping 64 ------- 0 0.0 4.0 -1 15
- 0.6 0 2 ping 64 ------- 0 0.0 4.0 -1 15
+ 0.6 5 3 ping 64 ------- 1 5.0 1.0 -1 16
- 0.6 5 3 ping 64 ------- 1 5.0 1.0 -1 16
r 0.610512 0 2 ping 64 ------- 0 0.0 4.0 -1 15
+ 0.610512 2 3 ping 64 ------- 0 0.0 4.0 -1 15
d 0.610512 2 3 ping 64 ------- 0 0.0 4.0 -1 15
r 0.610512 5 3 ping 64 ------- 1 5.0 1.0 -1 16
+ 0.610512 3 2 ping 64 ------- 1 5.0 1.0 -1 16
- 0.622512 2 3 ping 64 ------- 1 1.0 5.0 -1 14
- 0.622512 3 2 ping 64 ------- 1 5.0 1.0 -1 11
r 0.632512 2 3 ping 64 ------- 0 0.0 4.0 -1 12
+ 0.632512 3 4 ping 64 ------- 0 0.0 4.0 -1 12
- 0.632512 3 4 ping 64 ------- 0 0.0 4.0 -1 12
r 0.632512 3 2 ping 64 ------- 0 4.0 0.0 -1 8
+ 0.632512 2 0 ping 64 ------- 0 4.0 0.0 -1 8
- 0.632512 2 0 ping 64 ------- 0 4.0 0.0 -1 8
r 0.643024 3 4 ping 64 ------- 0 0.0 4.0 -1 12
+ 0.643024 4 3 ping 64 ------- 0 4.0 0.0 -1 17
- 0.643024 4 3 ping 64 ------- 0 4.0 0.0 -1 17
r 0.643024 2 0 ping 64 ------- 0 4.0 0.0 -1 8
r 0.653536 4 3 ping 64 ------- 0 4.0 0.0 -1 17
+ 0.653536 3 2 ping 64 ------- 0 4.0 0.0 -1 17
+ 0.7 0 2 ping 64 ------- 0 0.0 4.0 -1 18
- 0.7 0 2 ping 64 ------- 0 0.0 4.0 -1 18
+ 0.7 5 3 ping 64 ------- 1 5.0 1.0 -1 19
- 0.7 5 3 ping 64 ------- 1 5.0 1.0 -1 19
r 0.710512 0 2 ping 64 ------- 0 0.0 4.0 -1 18
+ 0.710512 2 3 ping 64 ------- 0 0.0 4.0 -1 18
r 0.710512 5 3 ping 64 ------- 1 5.0 1.0 -1 19
+ 0.710512 3 2 ping 64 ------- 1 5.0 1.0 -1 19
- 0.724912 2 3 ping 64 ------- 0 0.0 4.0 -1 18
- 0.724912 3 2 ping 64 ------- 1 5.0 1.0 -1 13
r 0.734912 2 3 ping 64 ------- 1 1.0 5.0 -1 14
+ 0.734912 3 5 ping 64 ------- 1 1.0 5.0 -1 14
- 0.734912 3 5 ping 64 ------- 1 1.0 5.0 -1 14
r 0.734912 3 2 ping 64 ------- 1 5.0 1.0 -1 11
+ 0.734912 2 1 ping 64 ------- 1 5.0 1.0 -1 11
- 0.734912 2 1 ping 64 ------- 1 5.0 1.0 -1 11
r 0.745424 3 5 ping 64 ------- 1 1.0 5.0 -1 14
r 0.745424 2 1 ping 64 ------- 1 5.0 1.0 -1 11
+ 0.745424 1 2 ping 64 ------- 1 1.0 5.0 -1 20
- 0.745424 1 2 ping 64 ------- 1 1.0 5.0 -1 20
r 0.755936 1 2 ping 64 ------- 1 1.0 5.0 -1 20
+ 0.755936 2 3 ping 64 ------- 1 1.0 5.0 -1 20
+ 0.8 0 2 ping 64 ------- 0 0.0 4.0 -1 21
- 0.8 0 2 ping 64 ------- 0 0.0 4.0 -1 21
+ 0.8 5 3 ping 64 ------- 1 5.0 1.0 -1 22
- 0.8 5 3 ping 64 ------- 1 5.0 1.0 -1 22
r 0.810512 0 2 ping 64 ------- 0 0.0 4.0 -1 21
+ 0.810512 2 3 ping 64 ------- 0 0.0 4.0 -1 21
d 0.810512 2 3 ping 64 ------- 0 0.0 4.0 -1 21
r 0.810512 5 3 ping 64 ------- 1 5.0 1.0 -1 22
+ 0.810512 3 2 ping 64 ------- 1 5.0 1.0 -1 22
- 0.827312 2 3 ping 64 ------- 1 1.0 5.0 -1 20
- 0.827312 3 2 ping 64 ------- 1 5.0 1.0 -1 16
r 0.837312 2 3 ping 64 ------- 0 0.0 4.0 -1 18
+ 0.837312 3 4 ping 64 ------- 0 0.0 4.0 -1 18
- 0.837312 3 4 ping 64 ------- 0 0.0 4.0 -1 18
r 0.837312 3 2 ping 64 ------- 1 5.0 1.0 -1 13
+ 0.837312 2 1 ping 64 ------- 1 5.0 1.0 -1 13
- 0.837312 2 1 ping 64 ------- 1 5.0 1.0 -1 13
r 0.847824 3 4 ping 64 ------- 0 0.0 4.0 -1 18
+ 0.847824 4 3 ping 64 ------- 0 4.0 0.0 -1 23
- 0.847824 4 3 ping 64 ------- 0 4.0 0.0 -1 23
r 0.847824 2 1 ping 64 ------- 1 5.0 1.0 -1 13
+ 0.847824 1 2 ping 64 ------- 1 1.0 5.0 -1 24
- 0.847824 1 2 ping 64 ------- 1 1.0 5.0 -1 24
r 0.858336 4 3 ping 64 ------- 0 4.0 0.0 -1 23
+ 0.858336 3 2 ping 64 ------- 0 4.0 0.0 -1 23
r 0.858336 1 2 ping 64 ------- 1 1.0 5.0 -1 24
+ 0.858336 2 3 ping 64 ------- 1 1.0 5.0 -1 24
+ 0.9 0 2 ping 64 ------- 0 0.0 4.0 -1 25
- 0.9 0 2 ping 64 ------- 0 0.0 4.0 -1 25
+ 0.9 5 3 ping 64 ------- 1 5.0 1.0 -1 26
- 0.9 5 3 ping 64 ------- 1 5.0 1.0 -1 26
r 0.910512 0 2 ping 64 ------- 0 0.0 4.0 -1 25
+ 0.910512 2 3 ping 64 ------- 0 0.0 4.0 -1 25
d 0.910512 2 3 ping 64 ------- 0 0.0 4.0 -1 25
r 0.910512 5 3 ping 64 ------- 1 5.0 1.0 -1 26
+ 0.910512 3 2 ping 64 ------- 1 5.0 1.0 -1 26
- 0.929712 2 3 ping 64 ------- 1 1.0 5.0 -1 24
- 0.929712 3 2 ping 64 ------- 0 4.0 0.0 -1 17
r 0.939712 2 3 ping 64 ------- 1 1.0 5.0 -1 20
+ 0.939712 3 5 ping 64 ------- 1 1.0 5.0 -1 20
- 0.939712 3 5 ping 64 ------- 1 1.0 5.0 -1 20
r 0.939712 3 2 ping 64 ------- 1 5.0 1.0 -1 16
+ 0.939712 2 1 ping 64 ------- 1 5.0 1.0 -1 16
- 0.939712 2 1 ping 64 ------- 1 5.0 1.0 -1 16
r 0.950224 3 5 ping 64 ------- 1 1.0 5.0 -1 20
r 0.950224 2 1 ping 64 ------- 1 5.0 1.0 -1 16
+ 0.950224 1 2 ping 64 ------- 1 1.0 5.0 -1 27
- 0.950224 1 2 ping 64 ------- 1 1.0 5.0 -1 27
r 0.960736 1 2 ping 64 ------- 1 1.0 5.0 -1 27
+ 0.960736 2 3 ping 64 ------- 1 1.0 5.0 -1 27
+ 1 0 2 ping 64 ------- 0 0.0 4.0 -1 28
- 1 0 2 ping 64 ------- 0 0.0 4.0 -1 28
+ 1 5 3 ping 64 ------- 1 5.0 1.0 -1 29
- 1 5 3 ping 64 ------- 1 5.0 1.0 -1 29
r 1.010512 0 2 ping 64 ------- 0 0.0 4.0 -1 28
+ 1.010512 2 3 ping 64 ------- 0 0.0 4.0 -1 28
d 1.010512 2 3 ping 64 ------- 0 0.0 4.0 -1 28
r 1.010512 5 3 ping 64 ------- 1 5.0 1.0 -1 29
+ 1.010512 3 2 ping 64 ------- 1 5.0 1.0 -1 29
- 1.032112 2 3 ping 64 ------- 1 1.0 5.0 -1 27
- 1.032112 3 2 ping 64 ------- 1 5.0 1.0 -1 19
r 1.042112 2 3 ping 64 ------- 1 1.0 5.0 -1 24
+ 1.042112 3 5 ping 64 ------- 1 1.0 5.0 -1 24
- 1.042112 3 5 ping 64 ------- 1 1.0 5.0 -1 24
r 1.042112 3 2 ping 64 ------- 0 4.0 0.0 -1 17
+ 1.042112 2 0 ping 64 ------- 0 4.0 0.0 -1 17
- 1.042112 2 0 ping 64 ------- 0 4.0 0.0 -1 17
r 1.052624 3 5 ping 64 ------- 1 1.0 5.0 -1 24
r 1.052624 2 0 ping 64 ------- 0 4.0 0.0 -1 17
+ 1.1 0 2 ping 64 ------- 0 0.0 4.0 -1 30
- 1.1 0 2 ping 64 ------- 0 0.0 4.0 -1 30
+ 1.1 5 3 ping 64 ------- 1 5.0 1.0 -1 31
- 1.1 5 3 ping 64 ------- 1 5.0 1.0 -1 31
r 1.110512 0 2 ping 64 ------- 0 0.0 4.0 -1 30
+ 1.110512 2 3 ping 64 ------- 0 0.0 4.0 -1 30
r 1.110512 5 3 ping 64 ------- 1 5.0 1.0 -1 31
+ 1.110512 3 2 ping 64 ------- 1 5.0 1.0 -1 31
- 1.134512 2 3 ping 64 ------- 0 0.0 4.0 -1 30
- 1.134512 3 2 ping 64 ------- 1 5.0 1.0 -1 22
r 1.144512 2 3 ping 64 ------- 1 1.0 5.0 -1 27
+ 1.144512 3 5 ping 64 ------- 1 1.0 5.0 -1 27
- 1.144512 3 5 ping 64 ------- 1 1.0 5.0 -1 27
r 1.144512 3 2 ping 64 ------- 1 5.0 1.0 -1 19
+ 1.144512 2 1 ping 64 ------- 1 5.0 1.0 -1 19
- 1.144512 2 1 ping 64 ------- 1 5.0 1.0 -1 19
r 1.155024 3 5 ping 64 ------- 1 1.0 5.0 -1 27
r 1.155024 2 1 ping 64 ------- 1 5.0 1.0 -1 19
+ 1.155024 1 2 ping 64 ------- 1 1.0 5.0 -1 32
- 1.155024 1 2 ping 64 ------- 1 1.0 5.0 -1 32
r 1.165536 1 2 ping 64 ------- 1 1.0 5.0 -1 32
+ 1.165536 2 3 ping 64 ------- 1 1.0 5.0 -1 32
+ 1.2 0 2 ping 64 ------- 0 0.0 4.0 -1 33
- 1.2 0 2 ping 64 ------- 0 0.0 4.0 -1 33
+ 1.2 5 3 ping 64 ------- 1 5.0 1.0 -1 34
- 1.2 5 3 ping 64 ------- 1 5.0 1.0 -1 34
r 1.210512 0 2 ping 64 ------- 0 0.0 4.0 -1 33
+ 1.210512 2 3 ping 64 ------- 0 0.0 4.0 -1 33
d 1.210512 2 3 ping 64 ------- 0 0.0 4.0 -1 33
r 1.210512 5 3 ping 64 ------- 1 5.0 1.0 -1 34
+ 1.210512 3 2 ping 64 ------- 1 5.0 1.0 -1 34
- 1.236912 2 3 ping 64 ------- 1 1.0 5.0 -1 32
- 1.236912 3 2 ping 64 ------- 0 4.0 0.0 -1 23
r 1.246912 2 3 ping 64 ------- 0 0.0 4.0 -1 30
+ 1.246912 3 4 ping 64 ------- 0 0.0 4.0 -1 30
- 1.246912 3 4 ping 64 ------- 0 0.0 4.0 -1 30
r 1.246912 3 2 ping 64 ------- 1 5.0 1.0 -1 22
+ 1.246912 2 1 ping 64 ------- 1 5.0 1.0 -1 22
- 1.246912 2 1 ping 64 ------- 1 5.0 1.0 -1 22
r 1.257424 3 4 ping 64 ------- 0 0.0 4.0 -1 30
+ 1.257424 4 3 ping 64 ------- 0 4.0 0.0 -1 35
- 1.257424 4 3 ping 64 ------- 0 4.0 0.0 -1 35
r 1.257424 2 1 ping 64 ------- 1 5.0 1.0 -1 22
+ 1.257424 1 2 ping 64 ------- 1 1.0 5.0 -1 36
- 1.257424 1 2 ping 64 ------- 1 1.0 5.0 -1 36
r 1.267936 4 3 ping 64 ------- 0 4.0 0.0 -1 35
+ 1.267936 3 2 ping 64 ------- 0 4.0 0.0 -1 35
r 1.267936 1 2 ping 64 ------- 1 1.0 5.0 -1 36
+ 1.267936 2 3 ping 64 ------- 1 1.0 5.0 -1 36
+ 1.3 0 2 ping 64 ------- 0 0.0 4.0 -1 37
- 1.3 0 2 ping 64 ------- 0 0.0 4.0 -1 37
+ 1.3 5 3 ping 64 ------- 1 5.0 1.0 -1 38
- 1.3 5 3 ping 64 ------- 1 5.0 1.0 -1 38
r 1.310512 0 2 ping 64 ------- 0 0.0 4.0 -1 37
+ 1.310512 2 3 ping 64 ------- 0 0.0 4.0 -1 37
d 1.310512 2 3 ping 64 ------- 0 0.0 4.0 -1 37
r 1.310512 5 3 ping 64 ------- 1 5.0 1.0 -1 38
+ 1.310512 3 2 ping 64 ------- 1 5.0 1.0 -1 38
- 1.339312 2 3 ping 64 ------- 1 1.0 5.0 -1 36
- 1.339312 3 2 ping 64 ------- 1 5.0 1.0 -1 26
r 1.349312 2 3 ping 64 ------- 1 1.0 5.0 -1 32
+ 1.349312 3 5 ping 64 ------- 1 1.0 5.0 -1 32
- 1.349312 3 5 ping 64 ------- 1 1.0 5.0 -1 32
r 1.349312 3 2 ping 64 ------- 0 4.0 0.0 -1 23
+ 1.349312 2 0 ping 64 ------- 0 4.0 0.0 -1 23
- 1.349312 2 0 ping 64 ------- 0 4.0 0.0 -1 23
r 1.359824 3 5 ping 64 ------- 1 1.0 5.0 -1 32
r 1.359824 2 0 ping 64 ------- 0 4.0 0.0 -1 23
+ 1.4 0 2 ping 64 ------- 0 0.0 4.0 -1 39
- 1.4 0 2 ping 64 ------- 0 0.0 4.0 -1 39
+ 1.4 5 3 ping 64 ------- 1 5.0 1.0 -1 40
- 1.4 5 3 ping 64 ------- 1 5.0 1.0 -1 40
r 1.410512 0 2 ping 64 ------- 0 0.0 4.0 -1 39
+ 1.410512 2 3 ping 64 ------- 0 0.0 4.0 -1 39
r 1.410512 5 3 ping 64 ------- 1 5.0 1.0 -1 40
+ 1.410512 3 2 ping 64 ------- 1 5.0 1.0 -1 40
- 1.441712 2 3 ping 64 ------- 0 0.0 4.0 -1 39
- 1.441712 3 2 ping 64 ------- 1 5.0 1.0 -1 29
r 1.451712 2 3 ping 64 ------- 1 1.0 5.0 -1 36
+ 1.451712 3 5 ping 64 ------- 1 1.0 5.0 -1 36
- 1.451712 3 5 ping 64 ------- 1 1.0 5.0 -1 36
r 1.451712 3 2 ping 64 ------- 1 5.0 1.0 -1 26
+ 1.451712 2 1 ping 64 ------- 1 5.0 1.0 -1 26
- 1.451712 2 1 ping 64 ------- 1 5.0 1.0 -1 26
r 1.462224 3 5 ping 64 ------- 1 1.0 5.0 -1 36
r 1.462224 2 1 ping 64 ------- 1 5.0 1.0 -1 26
+ 1.462224 1 2 ping 64 ------- 1 1.0 5.0 -1 41
- 1.462224 1 2 ping 64 ------- 1 1.0 5.0 -1 41
r 1.472736 1 2 ping 64 ------- 1 1.0 5.0 -1 41
+ 1.472736 2 3 ping 64 ------- 1 1.0 5.0 -1 41
+ 1.5 0 2 ping 64 ------- 0 0.0 4.0 -1 42
- 1.5 0 2 ping 64 ------- 0 0.0 4.0 -1 42
+ 1.5 5 3 ping 64 ------- 1 5.0 1.0 -1 43
- 1.5 5 3 ping 64 ------- 1 5.0 1.0 -1 43
r 1.510512 0 2 ping 64 ------- 0 0.0 4.0 -1 42
+ 1.510512 2 3 ping 64 ------- 0 0.0 4.0 -1 42
d 1.510512 2 3 ping 64 ------- 0 0.0 4.0 -1 42
r 1.510512 5 3 ping 64 ------- 1 5.0 1.0 -1 43
+ 1.510512 3 2 ping 64 ------- 1 5.0 1.0 -1 43
- 1.544112 2 3 ping 64 ------- 1 1.0 5.0 -1 41
- 1.544112 3 2 ping 64 ------- 1 5.0 1.0 -1 31
r 1.554112 2 3 ping 64 ------- 0 0.0 4.0 -1 39
+ 1.554112 3 4 ping 64 ------- 0 0.0 4.0 -1 39
- 1.554112 3 4 ping 64 ------- 0 0.0 4.0 -1 39
r 1.554112 3 2 ping 64 ------- 1 5.0 1.0 -1 29
+ 1.554112 2 1 ping 64 ------- 1 5.0 1.0 -1 29
- 1.554112 2 1 ping 64 ------- 1 5.0 1.0 -1 29
r 1.564624 3 4 ping 64 ------- 0 0.0 4.0 -1 39
+ 1.564624 4 3 ping 64 ------- 0 4.0 0.0 -1 44
- 1.564624 4 3 ping 64 ------- 0 4.0 0.0 -1 44
r 1.564624 2 1 ping 64 ------- 1 5.0 1.0 -1 29
+ 1.564624 1 2 ping 64 ------- 1 1.0 5.0 -1 45
- 1.564624 1 2 ping 64 ------- 1 1.0 5.0 -1 45
r 1.575136 4 3 ping 64 ------- 0 4.0 0.0 -1 44
+ 1.575136 3 2 ping 64 ------- 0 4.0 0.0 -1 44
r 1.575136 1 2 ping 64 ------- 1 1.0 5.0 -1 45
+ 1.575136 2 3 ping 64 ------- 1 1.0 5.0 -1 45
+ 1.6 0 2 ping 64 ------- 0 0.0 4.0 -1 46
- 1.6 0 2 ping 64 ------- 0 0.0 4.0 -1 46
+ 1.6 5 3 ping 64 ------- 1 5.0 1.0 -1 47
- 1.6 5 3 ping 64 ------- 1 5.0 1.0 -1 47
r 1.610512 0 2 ping 64 ------- 0 0.0 4.0 -1 46
+ 1.610512 2 3 ping 64 ------- 0 0.0 4.0 -1 46
d 1.610512 2 3 ping 64 ------- 0 0.0 4.0 -1 46
r 1.610512 5 3 ping 64 ------- 1 5.0 1.0 -1 47
+ 1.610512 3 2 ping 64 ------- 1 5.0 1.0 -1 47
- 1.646512 2 3 ping 64 ------- 1 1.0 5.0 -1 45
- 1.646512 3 2 ping 64 ------- 1 5.0 1.0 -1 34
r 1.656512 2 3 ping 64 ------- 1 1.0 5.0 -1 41
+ 1.656512 3 5 ping 64 ------- 1 1.0 5.0 -1 41
- 1.656512 3 5 ping 64 ------- 1 1.0 5.0 -1 41
r 1.656512 3 2 ping 64 ------- 1 5.0 1.0 -1 31
+ 1.656512 2 1 ping 64 ------- 1 5.0 1.0 -1 31
- 1.656512 2 1 ping 64 ------- 1 5.0 1.0 -1 31
r 1.667024 3 5 ping 64 ------- 1 1.0 5.0 -1 41
r 1.667024 2 1 ping 64 ------- 1 5.0 1.0 -1 31
+ 1.667024 1 2 ping 64 ------- 1 1.0 5.0 -1 48
- 1.667024 1 2 ping 64 ------- 1 1.0 5.0 -1 48
r 1.677536 1 2 ping 64 ------- 1 1.0 5.0 -1 48
+ 1.677536 2 3 ping 64 ------- 1 1.0 5.0 -1 48
+ 1.7 0 2 ping 64 ------- 0 0.0 4.0 -1 49
- 1.7 0 2 ping 64 ------- 0 0.0 4.0 -1 49
+ 1.7 5 3 ping 64 ------- 1 5.0 1.0 -1 50
- 1.7 5 3 ping 64 ------- 1 5.0 1.0 -1 50
r 1.710512 0 2 ping 64 ------- 0 0.0 4.0 -1 49
+ 1.710512 2 3 ping 64 ------- 0 0.0 4.0 -1 49
d 1.710512 2 3 ping 64 ------- 0 0.0 4.0 -1 49
r 1.710512 5 3 ping 64 ------- 1 5.0 1.0 -1 50
+ 1.710512 3 2 ping 64 ------- 1 5.0 1.0 -1 50
- 1.748912 2 3 ping 64 ------- 1 1.0 5.0 -1 48
- 1.748912 3 2 ping 64 ------- 0 4.0 0.0 -1 35
r 1.758912 2 3 ping 64 ------- 1 1.0 5.0 -1 45
+ 1.758912 3 5 ping 64 ------- 1 1.0 5.0 -1 45
- 1.758912 3 5 ping 64 ------- 1 1.0 5.0 -1 45
r 1.758912 3 2 ping 64 ------- 1 5.0 1.0 -1 34
+ 1.758912 2 1 ping 64 ------- 1 5.0 1.0 -1 34
- 1.758912 2 1 ping 64 ------- 1 5.0 1.0 -1 34
r 1.769424 3 5 ping 64 ------- 1 1.0 5.0 -1 45
r 1.769424 2 1 ping 64 ------- 1 5.0 1.0 -1 34
+ 1.769424 1 2 ping 64 ------- 1 1.0 5.0 -1 51
- 1.769424 1 2 ping 64 ------- 1 1.0 5.0 -1 51
r 1.779936 1 2 ping 64 ------- 1 1.0 5.0 -1 51
+ 1.779936 2 3 ping 64 ------- 1 1.0 5.0 -1 51
+ 1.8 0 2 ping 64 ------- 0 0.0 4.0 -1 52
- 1.8 0 2 ping 64 ------- 0 0.0 4.0 -1 52
+ 1.8 5 3 ping 64 ------- 1 5.0 1.0 -1 53
- 1.8 5 3 ping 64 ------- 1 5.0 1.0 -1 53
r 1.810512 0 2 ping 64 ------- 0 0.0 4.0 -1 52
+ 1.810512 2 3 ping 64 ------- 0 0.0 4.0 -1 52
d 1.810512 2 3 ping 64 ------- 0 0.0 4.0 -1 52
r 1.810512 5 3 ping 64 ------- 1 5.0 1.0 -1 53
+ 1.810512 3 2 ping 64 ------- 1 5.0 1.0 -1 53
- 1.851312 2 3 ping 64 ------- 1 1.0 5.0 -1 51
- 1.851312 3 2 ping 64 ------- 1 5.0 1.0 -1 38
r 1.861312 2 3 ping 64 ------- 1 1.0 5.0 -1 48
+ 1.861312 3 5 ping 64 ------- 1 1.0 5.0 -1 48
- 1.861312 3 5 ping 64 ------- 1 1.0 5.0 -1 48
r 1.861312 3 2 ping 64 ------- 0 4.0 0.0 -1 35
+ 1.861312 2 0 ping 64 ------- 0 4.0 0.0 -1 35
- 1.861312 2 0 ping 64 ------- 0 4.0 0.0 -1 35
r 1.871824 3 5 ping 64 ------- 1 1.0 5.0 -1 48
r 1.871824 2 0 ping 64 ------- 0 4.0 0.0 -1 35
+ 1.9 0 2 ping 64 ------- 0 0.0 4.0 -1 54
- 1.9 0 2 ping 64 ------- 0 0.0 4.0 -1 54
+ 1.9 5 3 ping 64 ------- 1 5.0 1.0 -1 55
- 1.9 5 3 ping 64 ------- 1 5.0 1.0 -1 55
r 1.910512 0 2 ping 64 ------- 0 0.0 4.0 -1 54
+ 1.910512 2 3 ping 64 ------- 0 0.0 4.0 -1 54
r 1.910512 5 3 ping 64 ------- 1 5.0 1.0 -1 55
+ 1.910512 3 2 ping 64 ------- 1 5.0 1.0 -1 55
- 1.953712 2 3 ping 64 ------- 0 0.0 4.0 -1 54
- 1.953712 3 2 ping 64 ------- 1 5.0 1.0 -1 40
r 1.963712 2 3 ping 64 ------- 1 1.0 5.0 -1 51
+ 1.963712 3 5 ping 64 ------- 1 1.0 5.0 -1 51
- 1.963712 3 5 ping 64 ------- 1 1.0 5.0 -1 51
r 1.963712 3 2 ping 64 ------- 1 5.0 1.0 -1 38
+ 1.963712 2 1 ping 64 ------- 1 5.0 1.0 -1 38
- 1.963712 2 1 ping 64 ------- 1 5.0 1.0 -1 38
r 1.974224 3 5 ping 64 ------- 1 1.0 5.0 -1 51
r 1.974224 2 1 ping 64 ------- 1 5.0 1.0 -1 38
+ 1.974224 1 2 ping 64 ------- 1 1.0 5.0 -1 56
- 1.974224 1 2 ping 64 ------- 1 1.0 5.0 -1 56
r 1.984736 1 2 ping 64 ------- 1 1.0 5.0 -1 56
+ 1.984736 2 3 ping 64 ------- 1 1.0 5.0 -1 56
+ 2 0 2 ping 64 ------- 0 0.0 4.0 -1 57
- 2 0 2 ping 64 ------- 0 0.0 4.0 -1 57
+ 2 5 3 ping 64 ------- 1 5.0 1.0 -1 58
- 2 5 3 ping 64 ------- 1 5.0 1.0 -1 58
r 2.010512 0 2 ping 64 ------- 0 0.0 4.0 -1 57
+ 2.010512 2 3 ping 64 ------- 0 0.0 4.0 -1 57
d 2.010512 2 3 ping 64 ------- 0 0.0 4.0 -1 57
r 2.010512 5 3 ping 64 ------- 1 5.0 1.0 -1 58
+ 2.010512 3 2 ping 64 ------- 1 5.0 1.0 -1 58
- 2.056112 2 3 ping 64 ------- 1 1.0 5.0 -1 56
- 2.056112 3 2 ping 64 ------- 1 5.0 1.0 -1 43
r 2.066112 2 3 ping 64 ------- 0 0.0 4.0 -1 54
+ 2.066112 3 4 ping 64 ------- 0 0.0 4.0 -1 54
- 2.066112 3 4 ping 64 ------- 0 0.0 4.0 -1 54
r 2.066112 3 2 ping 64 ------- 1 5.0 1.0 -1 40
+ 2.066112 2 1 ping 64 ------- 1 5.0 1.0 -1 40
- 2.066112 2 1 ping 64 ------- 1 5.0 1.0 -1 40
r 2.076624 3 4 ping 64 ------- 0 0.0 4.0 -1 54
+ 2.076624 4 3 ping 64 ------- 0 4.0 0.0 -1 59
- 2.076624 4 3 ping 64 ------- 0 4.0 0.0 -1 59
r 2.076624 2 1 ping 64 ------- 1 5.0 1.0 -1 40
+ 2.076624 1 2 ping 64 ------- 1 1.0 5.0 -1 60
- 2.076624 1 2 ping 64 ------- 1 1.0 5.0 -1 60
r 2.087136 4 3 ping 64 ------- 0 4.0 0.0 -1 59
+ 2.087136 3 2 ping 64 ------- 0 4.0 0.0 -1 59
r 2.087136 1 2 ping 64 ------- 1 1.0 5.0 -1 60
+ 2.087136 2 3 ping 64 ------- 1 1.0 5.0 -1 60
+ 2.1 0 2 ping 64 ------- 0 0.0 4.0 -1 61
- 2.1 0 2 ping 64 ------- 0 0.0 4.0 -1 61
+ 2.1 5 3 ping 64 ------- 1 5.0 1.0 -1 62
- 2.1 5 3 ping 64 ------- 1 5.0 1.0 -1 62
r 2.110512 0 2 ping 64 ------- 0 0.0 4.0 -1 61
+ 2.110512 2 3 ping 64 ------- 0 0.0 4.0 -1 61
d 2.110512 2 3 ping 64 ------- 0 0.0 4.0 -1 61
r 2.110512 5 3 ping 64 ------- 1 5.0 1.0 -1 62
+ 2.110512 3 2 ping 64 ------- 1 5.0 1.0 -1 62
- 2.158512 2 3 ping 64 ------- 1 1.0 5.0 -1 60
- 2.158512 3 2 ping 64 ------- 0 4.0 0.0 -1 44
r 2.168512 2 3 ping 64 ------- 1 1.0 5.0 -1 56
+ 2.168512 3 5 ping 64 ------- 1 1.0 5.0 -1 56
- 2.168512 3 5 ping 64 ------- 1 1.0 5.0 -1 56
r 2.168512 3 2 ping 64 ------- 1 5.0 1.0 -1 43
+ 2.168512 2 1 ping 64 ------- 1 5.0 1.0 -1 43
- 2.168512 2 1 ping 64 ------- 1 5.0 1.0 -1 43
r 2.179024 3 5 ping 64 ------- 1 1.0 5.0 -1 56
r 2.179024 2 1 ping 64 ------- 1 5.0 1.0 -1 43
+ 2.179024 1 2 ping 64 ------- 1 1.0 5.0 -1 63
- 2.179024 1 2 ping 64 ------- 1 1.0 5.0 -1 63
r 2.189536 1 2 ping 64 ------- 1 1.0 5.0 -1 63
+ 2.189536 2 3 ping 64 ------- 1 1.0 5.0 -1 63
+ 2.2 0 2 ping 64 ------- 0 0.0 4.0 -1 64
- 2.2 0 2 ping 64 ------- 0 0.0 4.0 -1 64
+ 2.2 5 3 ping 64 ------- 1 5.0 1.0 -1 65
- 2.2 5 3 ping 64 ------- 1 5.0 1.0 -1 65
r 2.210512 0 2 ping 64 ------- 0 0.0 4.0 -1 64
+ 2.210512 2 3 ping 64 ------- 0 0.0 4.0 -1 64
d 2.210512 2 3 ping 64 ------- 0 0.0 4.0 -1 64
r 2.210512 5 3 ping 64 ------- 1 5.0 1.0 -1 65
+ 2.210512 3 2 ping 64 ------- 1 5.0 1.0 -1 65
- 2.260912 2 3 ping 64 ------- 1 1.0 5.0 -1 63
- 2.260912 3 2 ping 64 ------- 1 5.0 1.0 -1 47
r 2.270912 2 3 ping 64 ------- 1 1.0 5.0 -1 60
+ 2.270912 3 5 ping 64 ------- 1 1.0 5.0 -1 60
- 2.270912 3 5 ping 64 ------- 1 1.0 5.0 -1 60
r 2.270912 3 2 ping 64 ------- 0 4.0 0.0 -1 44
+ 2.270912 2 0 ping 64 ------- 0 4.0 0.0 -1 44
- 2.270912 2 0 ping 64 ------- 0 4.0 0.0 -1 44
r 2.281424 3 5 ping 64 ------- 1 1.0 5.0 -1 60
r 2.281424 2 0 ping 64 ------- 0 4.0 0.0 -1 44
+ 2.3 0 2 ping 64 ------- 0 0.0 4.0 -1 66
- 2.3 0 2 ping 64 ------- 0 0.0 4.0 -1 66
+ 2.3 5 3 ping 64 ------- 1 5.0 1.0 -1 67
- 2.3 5 3 ping 64 ------- 1 5.0 1.0 -1 67
r 2.310512 0 2 ping 64 ------- 0 0.0 4.0 -1 66
+ 2.310512 2 3 ping 64 ------- 0 0.0 4.0 -1 66
r 2.310512 5 3 ping 64 ------- 1 5.0 1.0 -1 67
+ 2.310512 3 2 ping 64 ------- 1 5.0 1.0 -1 67
- 2.363312 2 3 ping 64 ------- 0 0.0 4.0 -1 66
- 2.363312 3 2 ping 64 ------- 1 5.0 1.0 -1 50
r 2.373312 2 3 ping 64 ------- 1 1.0 5.0 -1 63
+ 2.373312 3 5 ping 64 ------- 1 1.0 5.0 -1 63
- 2.373312 3 5 ping 64 ------- 1 1.0 5.0 -1 63
r 2.373312 3 2 ping 64 ------- 1 5.0 1.0 -1 47
+ 2.373312 2 1 ping 64 ------- 1 5.0 1.0 -1 47
- 2.373312 2 1 ping 64 ------- 1 5.0 1.0 -1 47
r 2.383824 3 5 ping 64 ------- 1 1.0 5.0 -1 63
r 2.383824 2 1 ping 64 ------- 1 5.0 1.0 -1 47
+ 2.383824 1 2 ping 64 ------- 1 1.0 5.0 -1 68
- 2.383824 1 2 ping 64 ------- 1 1.0 5.0 -1 68
r 2.394336 1 2 ping 64 ------- 1 1.0 5.0 -1 68
+ 2.394336 2 3 ping 64 ------- 1 1.0 5.0 -1 68
+ 2.4 0 2 ping 64 ------- 0 0.0 4.0 -1 69
- 2.4 0 2 ping 64 ------- 0 0.0 4.0 -1 69
+ 2.4 5 3 ping 64 ------- 1 5.0 1.0 -1 70
- 2.4 5 3 ping 64 ------- 1 5.0 1.0 -1 70
r 2.410512 0 2 ping 64 ------- 0 0.0 4.0 -1 69
+ 2.410512 2 3 ping 64 ------- 0 0.0 4.0 -1 69
d 2.410512 2 3 ping 64 ------- 0 0.0 4.0 -1 69
r 2.410512 5 3 ping 64 ------- 1 5.0 1.0 -1 70
+ 2.410512 3 2 ping 64 ------- 1 5.0 1.0 -1 70
- 2.465712 2 3 ping 64 ------- 1 1.0 5.0 -1 68
- 2.465712 3 2 ping 64 ------- 1 5.0 1.0 -1 53
r 2.475712 2 3 ping 64 ------- 0 0.0 4.0 -1 66
+ 2.475712 3 4 ping 64 ------- 0 0.0 4.0 -1 66
- 2.475712 3 4 ping 64 ------- 0 0.0 4.0 -1 66
r 2.475712 3 2 ping 64 ------- 1 5.0 1.0 -1 50
+ 2.475712 2 1 ping 64 ------- 1 5.0 1.0 -1 50
- 2.475712 2 1 ping 64 ------- 1 5.0 1.0 -1 50
r 2.486224 3 4 ping 64 ------- 0 0.0 4.0 -1 66
+ 2.486224 4 3 ping 64 ------- 0 4.0 0.0 -1 71
- 2.486224 4 3 ping 64 ------- 0 4.0 0.0 -1 71
r 2.486224 2 1 ping 64 ------- 1 5.0 1.0 -1 50
+ 2.486224 1 2 ping 64 ------- 1 1.0 5.0 -1 72
- 2.486224 1 2 ping 64 ------- 1 1.0 5.0 -1 72
r 2.496736 4 3 ping 64 ------- 0 4.0 0.0 -1 71
+ 2.496736 3 2 ping 64 ------- 0 4.0 0.0 -1 71
r 2.496736 1 2 ping 64 ------- 1 1.0 5.0 -1 72
+ 2.496736 2 3 ping 64 ------- 1 1.0 5.0 -1 72
+ 2.5 0 2 ping 64 ------- 0 0.0 4.0 -1 73
- 2.5 0 2 ping 64 ------- 0 0.0 4.0 -1 73
+ 2.5 5 3 ping 64 ------- 1 5.0 1.0 -1 74
- 2.5 5 3 ping 64 ------- 1 5.0 1.0 -1 74
r 2.510512 0 2 ping 64 ------- 0 0.0 4.0 -1 73
+ 2.510512 2 3 ping 64 ------- 0 0.0 4.0 -1 73
d 2.510512 2 3 ping 64 ------- 0 0.0 4.0 -1 73
r 2.510512 5 3 ping 64 ------- 1 5.0 1.0 -1 74
+ 2.510512 3 2 ping 64 ------- 1 5.0 1.0 -1 74
- 2.568112 2 3 ping 64 ------- 1 1.0 5.0 -1 72
- 2.568112 3 2 ping 64 ------- 1 5.0 1.0 -1 55
r 2.578112 2 3 ping 64 ------- 1 1.0 5.0 -1 68
+ 2.578112 3 5 ping 64 ------- 1 1.0 5.0 -1 68
- 2.578112 3 5 ping 64 ------- 1 1.0 5.0 -1 68
r 2.578112 3 2 ping 64 ------- 1 5.0 1.0 -1 53
+ 2.578112 2 1 ping 64 ------- 1 5.0 1.0 -1 53
- 2.578112 2 1 ping 64 ------- 1 5.0 1.0 -1 53
r 2.588624 3 5 ping 64 ------- 1 1.0 5.0 -1 68
r 2.588624 2 1 ping 64 ------- 1 5.0 1.0 -1 53
+ 2.588624 1 2 ping 64 ------- 1 1.0 5.0 -1 75
- 2.588624 1 2 ping 64 ------- 1 1.0 5.0 -1 75
r 2.599136 1 2 ping 64 ------- 1 1.0 5.0 -1 75
+ 2.599136 2 3 ping 64 ------- 1 1.0 5.0 -1 75
+ 2.6 0 2 ping 64 ------- 0 0.0 4.0 -1 76
- 2.6 0 2 ping 64 ------- 0 0.0 4.0 -1 76
+ 2.6 5 3 ping 64 ------- 1 5.0 1.0 -1 77
- 2.6 5 3 ping 64 ------- 1 5.0 1.0 -1 77
r 2.610512 0 2 ping 64 ------- 0 0.0 4.0 -1 76
+ 2.610512 2 3 ping 64 ------- 0 0.0 4.0 -1 76
d 2.610512 2 3 ping 64 ------- 0 0.0 4.0 -1 76
r 2.610512 5 3 ping 64 ------- 1 5.0 1.0 -1 77
+ 2.610512 3 2 ping 64 ------- 1 5.0 1.0 -1 77
- 2.670512 2 3 ping 64 ------- 1 1.0 5.0 -1 75
- 2.670512 3 2 ping 64 ------- 1 5.0 1.0 -1 58
r 2.680512 2 3 ping 64 ------- 1 1.0 5.0 -1 72
+ 2.680512 3 5 ping 64 ------- 1 1.0 5.0 -1 72
- 2.680512 3 5 ping 64 ------- 1 1.0 5.0 -1 72
r 2.680512 3 2 ping 64 ------- 1 5.0 1.0 -1 55
+ 2.680512 2 1 ping 64 ------- 1 5.0 1.0 -1 55
- 2.680512 2 1 ping 64 ------- 1 5.0 1.0 -1 55
r 2.691024 3 5 ping 64 ------- 1 1.0 5.0 -1 72
r 2.691024 2 1 ping 64 ------- 1 5.0 1.0 -1 55
+ 2.691024 1 2 ping 64 ------- 1 1.0 5.0 -1 78
- 2.691024 1 2 ping 64 ------- 1 1.0 5.0 -1 78
+ 2.7 0 2 ping 64 ------- 0 0.0 4.0 -1 79
- 2.7 0 2 ping 64 ------- 0 0.0 4.0 -1 79
+ 2.7 5 3 ping 64 ------- 1 5.0 1.0 -1 80
- 2.7 5 3 ping 64 ------- 1 5.0 1.0 -1 80
r 2.701536 1 2 ping 64 ------- 1 1.0 5.0 -1 78
+ 2.701536 2 3 ping 64 ------- 1 1.0 5.0 -1 78
r 2.710512 0 2 ping 64 ------- 0 0.0 4.0 -1 79
+ 2.710512 2 3 ping 64 ------- 0 0.0 4.0 -1 79
d 2.710512 2 3 ping 64 ------- 0 0.0 4.0 -1 79
r 2.710512 5 3 ping 64 ------- 1 5.0 1.0 -1 80
+ 2.710512 3 2 ping 64 ------- 1 5.0 1.0 -1 80
- 2.772912 2 3 ping 64 ------- 1 1.0 5.0 -1 78
- 2.772912 3 2 ping 64 ------- 0 4.0 0.0 -1 59
r 2.782912 2 3 ping 64 ------- 1 1.0 5.0 -1 75
+ 2.782912 3 5 ping 64 ------- 1 1.0 5.0 -1 75
- 2.782912 3 5 ping 64 ------- 1 1.0 5.0 -1 75
r 2.782912 3 2 ping 64 ------- 1 5.0 1.0 -1 58
+ 2.782912 2 1 ping 64 ------- 1 5.0 1.0 -1 58
- 2.782912 2 1 ping 64 ------- 1 5.0 1.0 -1 58
r 2.793424 3 5 ping 64 ------- 1 1.0 5.0 -1 75
r 2.793424 2 1 ping 64 ------- 1 5.0 1.0 -1 58
+ 2.793424 1 2 ping 64 ------- 1 1.0 5.0 -1 81
- 2.793424 1 2 ping 64 ------- 1 1.0 5.0 -1 81
+ 2.8 0 2 ping 64 ------- 0 0.0 4.0 -1 82
- 2.8 0 2 ping 64 ------- 0 0.0 4.0 -1 82
+ 2.8 5 3 ping 64 ------- 1 5.0 1.0 -1 83
- 2.8 5 3 ping 64 ------- 1 5.0 1.0 -1 83
r 2.803936 1 2 ping 64 ------- 1 1.0 5.0 -1 81
+ 2.803936 2 3 ping 64 ------- 1 1.0 5.0 -1 81
r 2.810512 0 2 ping 64 ------- 0 0.0 4.0 -1 82
+ 2.810512 2 3 ping 64 ------- 0 0.0 4.0 -1 82
d 2.810512 2 3 ping 64 ------- 0 0.0 4.0 -1 82
r 2.810512 5 3 ping 64 ------- 1 5.0 1.0 -1 83
+ 2.810512 3 2 ping 64 ------- 1 5.0 1.0 -1 83
- 2.875312 2 3 ping 64 ------- 1 1.0 5.0 -1 81
- 2.875312 3 2 ping 64 ------- 1 5.0 1.0 -1 62
r 2.885312 2 3 ping 64 ------- 1 1.0 5.0 -1 78
+ 2.885312 3 5 ping 64 ------- 1 1.0 5.0 -1 78
- 2.885312 3 5 ping 64 ------- 1 1.0 5.0 -1 78
r 2.885312 3 2 ping 64 ------- 0 4.0 0.0 -1 59
+ 2.885312 2 0 ping 64 ------- 0 4.0 0.0 -1 59
- 2.885312 2 0 ping 64 ------- 0 4.0 0.0 -1 59
r 2.895824 3 5 ping 64 ------- 1 1.0 5.0 -1 78
r 2.895824 2 0 ping 64 ------- 0 4.0 0.0 -1 59
+ 2.9 0 2 ping 64 ------- 0 0.0 4.0 -1 84
- 2.9 0 2 ping 64 ------- 0 0.0 4.0 -1 84
+ 2.9 5 3 ping 64 ------- 1 5.0 1.0 -1 85
- 2.9 5 3 ping 64 ------- 1 5.0 1.0 -1 85
r 2.910512 0 2 ping 64 ------- 0 0.0 4.0 -1 84
+ 2.910512 2 3 ping 64 ------- 0 0.0 4.0 -1 84
r 2.910512 5 3 ping 64 ------- 1 5.0 1.0 -1 85
+ 2.910512 3 2 ping 64 ------- 1 5.0 1.0 -1 85
- 2.977712 2 3 ping 64 ------- 0 0.0 4.0 -1 84
- 2.977712 3 2 ping 64 ------- 1 5.0 1.0 -1 65
r 2.987712 2 3 ping 64 ------- 1 1.0 5.0 -1 81
+ 2.987712 3 5 ping 64 ------- 1 1.0 5.0 -1 81
- 2.987712 3 5 ping 64 ------- 1 1.0 5.0 -1 81
r 2.987712 3 2 ping 64 ------- 1 5.0 1.0 -1 62
+ 2.987712 2 1 ping 64 ------- 1 5.0 1.0 -1 62
- 2.987712 2 1 ping 64 ------- 1 5.0 1.0 -1 62
r 2.998224 3 5 ping 64 ------- 1 1.0 5.0 -1 81
r 2.998224 2 1 ping 64 ------- 1 5.0 1.0 -1 62
+ 2.998224 1 2 ping 64 ------- 1 1.0 5.0 -1 86
- 2.998224 1 2 ping 64 ------- 1 1.0 5.0 -1 86
